VARIABLES ="X","Y","Z","Head","Vx","Vy","Vz","Vsum"
ZONE I=45, J=30, K=20, DATAPACKING=POINT
0.000000 0.000000 0.000000 2.000000 0.000000 0.000000 -0.408407 0.408407
0.022727 0.000000 0.000000 1.968146 0.109875 0.000000 -0.381347 0.396860
0.045455 0.000000 0.000000 1.880071 0.193943 0.000000 -0.306749 0.362917
0.068182 0.000000 0.000000 1.756408 0.232707 0.000000 -0.202748 0.308641
0.090909 0.000000 0.000000 1.625893 0.217740 0.000000 -0.094596 0.237401
0.113636 0.000000 0.000000 1.518340 0.153746 0.000000 -0.008486 0.153980
0.136364 0.000000 0.000000 1.457361 0.057398 0.000000 0.034856 0.067152
0.159091 0.000000 0.000000 1.454602 -0.046739 0.000000 0.025236 0.053117
0.181818 0.000000 0.000000 1.506912 -0.132229 0.000000 -0.034510 0.136658
0.204545 0.000000 0.000000 1.597129 -0.177232 0.000000 -0.129218 0.219336
0.227273 0.000000 0.000000 1.698308 -0.169857 0.000000 -0.235105 0.290045
0.250000 0.000000 0.000000 1.780330 -0.111072 0.000000 -0.325593 0.344018
0.272727 0.000000 0.000000 1.817304 -0.014471 0.000000 -0.377813 0.378090
0.295455 0.000000 0.000000 1.793926 0.097045 0.000000 -0.378203 0.390455
0.318182 0.000000 0.000000 1.709258 0.196869 0.000000 -0.325831 0.380688
0.340909 0.000000 0.000000 1.576991 0.261192 0.000000 -0.232627 0.349767
0.363636 0.000000 0.000000 1.422129 0.274827 0.000000 -0.120468 0.300071
0.386364 0.000000 0.000000 1.274913 0.234919 0.000000 -0.015833 0.235451
0.409091 0.000000 0.000000 1.163458 0.151641 0.000000 0.056673 0.161885
0.431818 0.000000 0.000000 1.106920 0.045708 0.000000 0.080332 0.092425
0.454545 0.000000 0.000000 1.110844 -0.056701 0.000000 0.050396 0.075860
0.477273 0.000000 0.000000 1.165857 -0.130340 0.000000 -0.024754 0.132670
0.500000 0.000000 0.000000 1.250000 -0.157080 0.000000 -0.125664 0.201160
0.522727 0.000000 0.000000 1.334143 -0.130340 0.000000 -0.226574 0.261389
0.545455 0.000000 0.000000 1.389156 -0.056701 0.000000 -0.301723 0.307005
0.568182 0.000000 0.000000 1.393080 0.045708 0.000000 -0.331659 0.334794
0.590909 0.000000 0.000000 1.336542 0.151641 0.000000 -0.308000 0.343306
0.613636 0.000000 0.000000 1.225087 0.234918 0.000000 -0.235494 0.332632
0.636364 0.000000 0.000000 1.077871 0.274827 0.000000 -0.130859 0.304391
0.659091 0.000000 0.000000 0.923010 0.261192 0.000000 -0.018700 0.261861
0.681818 0.000000 0.000000 0.790742 0.196869 0.000000 0.074504 0.210495
0.704545 0.000000 0.000000 0.706074 0.097045 0.000000 0.126876 0.159735
0.727273 0.000000 0.000000 0.682696 -0.014471 0.000000 0.126486 0.127311
0.750000 0.000000 0.000000 0.719670 -0.111072 0.000000 0.074266 0.133613
0.772727 0.000000 0.000000 0.801692 -0.169857 0.000000 -0.016222 0.170630
0.795455 0.000000 0.000000 0.902871 -0.177232 0.000000 -0.122110 0.215225
0.818182 0.000000 0.000000 0.993088 -0.132229 0.000000 -0.216818 0.253957
0.840909 0.000000 0.000000 1.045398 -0.046739 0.000000 -0.276563 0.280485
0.863636 0.000000 0.000000 1.042639 0.057398 0.000000 -0.286183 0.291882
0.886364 0.000000 0.000000 0.981661 0.153745 0.000000 -0.242842 0.287419
0.909091 0.000000 0.000000 0.874107 0.217740 0.000000 -0.156732 0.268283
0.931818 0.000000 0.000000 0.743592 0.232707 0.000000 -0.048580 0.237724
0.954545 0.000000 0.000000 0.619929 0.193943 0.000000 0.055422 0.201707
0.977273 0.000000 0.000000 0.531854 0.109875 0.000000 0.130020 0.170228
1.000000 0.000000 0.000000 0.500000 0.000000 0.000000 0.157080 0.157080
0.000000 0.017241 0.000000 1.994155 0.000000 0.013507 -0.405469 0.405694
0.022727 0.017241 0.000000 1.962301 0.109875 0.013507 -0.378409 0.394269
0.045455 0.017241 0.000000 1.874226 0.193943 0.013507 -0.303811 0.360691
0.068182 0.017241 0.000000 1.750563 0.232707 0.013507 -0.199810 0.307016
0.090909 0.017241 0.000000 1.620048 0.217740 0.013507 -0.091658 0.236631
0.113636 0.017241 0.000000 1.512495 0.153746 0.013507 -0.005548 0.154437
0.136364 0.017241 0.000000 1.451516 0.057398 0.013507 0.037793 0.070038
0.159091 0.017241 0.000000 1.448757 -0.046739 0.013507 0.028174 0.056221
0.181818 0.017241 0.000000 1.501067 -0.132229 0.013507 -0.031572 0.136615
0.204545 0.017241 0.000000 1.591284 -0.177232 0.013507 -0.126280 0.218037
0.227273 0.017241 0.000000 1.692463 -0.169857 0.013507 -0.232167 0.287985
0.250000 0.017241 0.000000 1.774485 -0.111072 0.013507 -0.322655 0.341505
0.272727 0.017241 0.000000 1.811459 -0.014471 0.013507 -0.374875 0.375398
0.295455 0.017241 0.000000 1.788081 0.097045 0.013507 -0.375265 0.387846
0.318182 0.017241 0.000000 1.703413 0.196869 0.013507 -0.322893 0.378418
0.340909 0.017241 0.000000 1.571146 0.261192 0.013507 -0.229689 0.348082
0.363636 0.017241 0.000000 1.416284 0.274827 0.013507 -0.117530 0.299208
0.386364 0.017241 0.000000 1.269068 0.234919 0.013507 -0.012895 0.235660
0.409091 0.017241 0.000000 1.157613 0.151641 0.013507 0.059611 0.163496
0.431818 0.017241 0.000000 1.101075 0.045708 0.013507 0.083270 0.095945
0.454545 0.017241 0.000000 1.104999 -0.056701 0.013507 0.053334 0.079006
0.477273 0.017241 0.000000 1.160012 -0.130340 0.013507 -0.021816 0.132841
0.500000 0.017241 0.000000 1.244155 -0.157080 0.013507 -0.122726 0.199795
0.522727 0.017241 0.000000 1.328298 -0.130340 0.013507 -0.223636 0.259199
0.545455 0.017241 0.000000 1.383311 -0.056701 0.013507 -0.298785 0.304417
0.568182 0.017241 0.000000 1.387236 0.045708 0.013507 -0.328721 0.332158
0.590909 0.017241 0.000000 1.330697 0.151641 0.013507 -0.305063 0.340941
0.613636 0.017241 0.000000 1.219243 0.234918 0.013507 -0.232556 0.330835
0.636364 0.017241 0.000000 1.072026 0.274827 0.013507 -0.127921 0.303440
0.659091 0.017241 0.000000 0.917165 0.261192 0.013507 -0.015763 0.262016
0.681818 0.017241 0.000000 0.784897 0.196869 0.013507 0.077442 0.211984
0.704545 0.017241 0.000000 0.700230 0.097045 0.013507 0.129814 0.162640
0.727273 0.017241 0.000000 0.676852 -0.014471 0.013507 0.129424 0.130929
0.750000 0.017241 0.000000 0.713825 -0.111072 0.013507 0.077204 0.135941
0.772727 0.017241 0.000000 0.795847 -0.169857 0.013507 -0.013284 0.170911
0.795455 0.017241 0.000000 0.897026 -0.177232 0.013507 -0.119172 0.213999
0.818182 0.017241 0.000000 0.987244 -0.132229 0.013507 -0.213880 0.251816
0.840909 0.017241 0.000000 1.039553 -0.046739 0.013507 -0.273626 0.277917
0.863636 0.017241 0.000000 1.036795 0.057398 0.013507 -0.283245 0.289318
0.886364 0.017241 0.000000 0.975816 0.153745 0.013507 -0.239904 0.285261
0.909091 0.017241 0.000000 0.868262 0.217740 0.013507 -0.153794 0.266919
0.931818 0.017241 0.000000 0.737747 0.232707 0.013507 -0.045642 0.237525
0.954545 0.017241 0.000000 0.614084 0.193943 0.013507 0.058360 0.202983
0.977273 0.017241 0.000000 0.526009 0.109875 0.013507 0.132958 0.173011
1.000000 0.017241 0.000000 0.494155 0.000000 0.013507 0.160018 0.160587
0.000000 0.034483 0.000000 1.976894 0.000000 0.026382 -0.396793 0.397669
0.022727 0.034483 0.000000 1.945040 0.109875 0.026382 -0.369733 0.386615
0.045455 0.034483 0.000000 1.856965 0.193943 0.026382 -0.295135 0.354139
0.068182 0.034483 0.000000 1.733302 0.232707 0.026382 -0.191134 0.302292
0.090909 0.034483 0.000000 1.602787 0.217740 0.026382 -0.082981 0.234505
0.113636 0.034483 0.000000 1.495233 0.153746 0.026382 0.003129 0.156024
0.136364 0.034483 0.000000 1.434254 0.057398 0.026382 0.046470 0.078422
0.159091 0.034483 0.000000 1.431496 -0.046739 0.026382 0.036851 0.065104
0.181818 0.034483 0.000000 1.483805 -0.132229 0.026382 -0.022895 0.136765
0.204545 0.034483 0.000000 1.574023 -0.177232 0.026382 -0.117603 0.214331
0.227273 0.034483 0.000000 1.675202 -0.169857 0.026382 -0.223491 0.281950
0.250000 0.034483 0.000000 1.757224 -0.111072 0.026382 -0.313979 0.334090
0.272727 0.034483 0.000000 1.794197 -0.014471 0.026382 -0.366199 0.367433
0.295455 0.034483 0.000000 1.770819 0.097045 0.026382 -0.366589 0.380133
0.318182 0.034483 0.000000 1.686152 0.196869 0.026382 -0.314217 0.371733
0.340909 0.034483 0.000000 1.553884 0.261192 0.026382 -0.221013 0.343168
0.363636 0.034483 0.000000 1.399023 0.274827 0.026382 -0.108854 0.296774
0.386364 0.034483 0.000000 1.251807 0.234919 0.026382 -0.004219 0.236433
0.409091 0.034483 0.000000 1.140352 0.151641 0.026382 0.068287 0.168387
0.431818 0.034483 0.000000 1.083813 0.045708 0.026382 0.091946 0.106016
0.454545 0.034483 0.000000 1.087738 -0.056701 0.026382 0.062010 0.088070
0.477273 0.034483 0.000000 1.142751 -0.130340 0.026382 -0.013139 0.133631
0.500000 0.034483 0.000000 1.226894 -0.157080 0.026382 -0.114049 0.195901
0.522727 0.034483 0.000000 1.311036 -0.130340 0.026382 -0.214959 0.252769
0.545455 0.034483 0.000000 1.366050 -0.056701 0.026382 -0.290109 0.296773
0.568182 0.034483 0.000000 1.369974 0.045708 0.026382 -0.320045 0.324367
0.590909 0.034483 0.000000 1.313436 0.151641 0.026382 -0.296386 0.333970
0.613636 0.034483 0.000000 1.201981 0.234918 0.026382 -0.223880 0.325584
0.636364 0.034483 0.000000 1.054765 0.274827 0.026382 -0.119245 0.300741
0.659091 0.034483 0.000000 0.899903 0.261192 0.026382 -0.007086 0.262617
0.681818 0.034483 0.000000 0.767636 0.196869 0.026382 0.086118 0.216494
0.704545 0.034483 0.000000 0.682968 0.097045 0.026382 0.138490 0.171153
0.727273 0.034483 0.000000 0.659590 -0.014471 0.026382 0.138100 0.141341
0.750000 0.034483 0.000000 0.696564 -0.111072 0.026382 0.085880 0.142858
0.772727 0.034483 0.000000 0.778586 -0.169857 0.026382 -0.004608 0.171956
0.795455 0.034483 0.000000 0.879764 -0.177232 0.026382 -0.110495 0.210515
0.818182 0.034483 0.000000 0.969982 -0.132229 0.026382 -0.205203 0.245538
0.840909 0.034483 0.000000 1.022292 -0.046739 0.026382 -0.264949 0.270331
0.863636 0.034483 0.000000 1.019533 0.057398 0.026382 -0.274569 0.281742
0.886364 0.034483 0.000000 0.958554 0.153745 0.026382 -0.231227 0.278926
0.909091 0.034483 0.000000 0.851001 0.217740 0.026382 -0.145117 0.262994
0.931818 0.034483 0.000000 0.720486 0.232707 0.026382 -0.036965 0.237097
0.954545 0.034483 0.000000 0.596823 0.193943 0.026382 0.067036 0.206891
0.977273 0.034483 0.000000 0.508748 0.109875 0.026382 0.141634 0.181187
1.000000 0.034483 0.000000 0.476894 0.000000 0.026382 0.168694 0.170745
0.000000 0.051724 0.000000 1.949023 0.000000 0.038024 -0.382783 0.384667
0.022727 0.051724 0.000000 1.917169 0.109875 0.038024 -0.355723 0.374243
0.045455 0.051724 0.000000 1.829094 0.193943 0.038024 -0.281125 0.343644
0.068182 0.051724 0.000000 1.705432 0.232707 0.038024 -0.177124 0.294909
0.090909 0.051724 0.000000 1.574916 0.217740 0.038024 -0.068972 0.231547
0.113636 0.051724 0.000000 1.467363 0.153746 0.038024 0.017138 0.159302
0.136364 0.051724 0.000000 1.406384 0.057398 0.038024 0.060479 0.091641
0.159091 0.051724 0.000000 1.403625 -0.046739 0.038024 0.050860 0.078849
0.181818 0.051724 0.000000 1.455935 -0.132229 0.038024 -0.008886 0.137874
0.204545 0.051724 0.000000 1.546153 -0.177232 0.038024 -0.103594 0.208779
0.227273 0.051724 0.000000 1.647331 -0.169857 0.038024 -0.209481 0.272360
0.250000 0.051724 0.000000 1.729353 -0.111072 0.038024 -0.299970 0.322125
0.272727 0.051724 0.000000 1.766327 -0.014471 0.038024 -0.352190 0.354532
0.295455 0.051724 0.000000 1.742949 0.097045 0.038024 -0.352580 0.367663
0.318182 0.051724 0.000000 1.658281 0.196869 0.038024 -0.300207 0.361009
0.340909 0.051724 0.000000 1.526014 0.261192 0.038024 -0.207003 0.335436
0.363636 0.051724 0.000000 1.371152 0.274827 0.038024 -0.094845 0.293208
0.386364 0.051724 0.000000 1.223936 0.234919 0.038024 0.009791 0.238177
0.409091 0.051724 0.000000 1.112482 0.151641 0.038024 0.082297 0.176674
0.431818 0.051724 0.000000 1.055943 0.045708 0.038024 0.105955 0.121497
0.454545 0.051724 0.000000 1.059867 -0.056701 0.038024 0.076019 0.102175
0.477273 0.051724 0.000000 1.114881 -0.130340 0.038024 0.000870 0.135776
0.500000 0.051724 0.000000 1.199023 -0.157080 0.038024 -0.100040 0.190073
0.522727 0.051724 0.000000 1.283166 -0.130340 0.038024 -0.200950 0.242519
0.545455 0.051724 0.000000 1.338179 -0.056701 0.038024 -0.276099 0.284415
0.568182 0.051724 0.000000 1.342104 0.045708 0.038024 -0.306035 0.311757
0.590909 0.051724 0.000000 1.285565 0.151641 0.038024 -0.282377 0.322765
0.613636 0.051724 0.000000 1.174111 0.234918 0.038024 -0.209871 0.317298
0.636364 0.051724 0.000000 1.026895 0.274827 0.038024 -0.105235 0.296733
0.659091 0.051724 0.000000 0.872033 0.261192 0.038024 0.006923 0.264036
0.681818 0.051724 0.000000 0.739766 0.196869 0.038024 0.100127 0.224118
0.704545 0.051724 0.000000 0.655098 0.097045 0.038024 0.152500 0.184715
0.727273 0.051724 0.000000 0.631720 -0.014471 0.038024 0.152110 0.157457
0.750000 0.051724 0.000000 0.668693 -0.111072 0.038024 0.099890 0.154145
0.772727 0.051724 0.000000 0.750715 -0.169857 0.038024 0.009401 0.174315
0.795455 0.051724 0.000000 0.851894 -0.177232 0.038024 -0.096486 0.205345
0.818182 0.051724 0.000000 0.942112 -0.132229 0.038024 -0.191194 0.235553
0.840909 0.051724 0.000000 0.994421 -0.046739 0.038024 -0.250940 0.258072
0.863636 0.051724 0.000000 0.991663 0.057398 0.038024 -0.260559 0.269502
0.886364 0.051724 0.000000 0.930684 0.153745 0.038024 -0.217218 0.268826
0.909091 0.051724 0.000000 0.823131 0.217740 0.038024 -0.131108 0.256994
0.931818 0.051724 0.000000 0.692615 0.232707 0.038024 -0.022956 0.236908
0.954545 0.051724 0.000000 0.568952 0.193943 0.038024 0.081045 0.213608
0.977273 0.051724 0.000000 0.480878 0.109875 0.038024 0.155643 0.194276
1.000000 0.051724 0.000000 0.449023 0.000000 0.038024 0.182703 0.186618
0.000000 0.068966 0.000000 1.911847 0.000000 0.047888 -0.364096 0.367232
0.022727 0.068966 0.000000 1.879992 0.109875 0.047888 -0.337036 0.357714
0.045455 0.068966 0.000000 1.791918 0.193943 0.047888 -0.262438 0.329820
0.068182 0.068966 0.000000 1.668255 0.232707 0.047888 -0.158437 0.285566
0.090909 0.068966 0.000000 1.537739 0.217740 0.047888 -0.050285 0.228545
0.113636 0.068966 0.000000 1.430186 0.153746 0.047888 0.035825 0.164968
0.136364 0.068966 0.000000 1.369207 0.057398 0.047888 0.079166 0.108881
0.159091 0.068966 0.000000 1.366449 -0.046739 0.047888 0.069547 0.096512
0.181818 0.068966 0.000000 1.418758 -0.132229 0.047888 0.009801 0.140974
0.204545 0.068966 0.000000 1.508976 -0.177232 0.047888 -0.084907 0.202271
0.227273 0.068966 0.000000 1.610154 -0.169857 0.047888 -0.190794 0.259899
0.250000 0.068966 0.000000 1.692177 -0.111072 0.047888 -0.281283 0.306187
0.272727 0.068966 0.000000 1.729150 -0.014471 0.047888 -0.333503 0.337234
0.295455 0.068966 0.000000 1.705772 0.097045 0.047888 -0.333893 0.350992
0.318182 0.068966 0.000000 1.621104 0.196869 0.047888 -0.281520 0.346849
0.340909 0.068966 0.000000 1.488837 0.261192 0.047888 -0.188316 0.325542
0.363636 0.068966 0.000000 1.333975 0.274827 0.047888 -0.076158 0.289177
0.386364 0.068966 0.000000 1.186759 0.234919 0.047888 0.028478 0.241435
0.409091 0.068966 0.000000 1.075305 0.151641 0.047888 0.100984 0.188377
0.431818 0.068966 0.000000 1.018766 0.045708 0.047888 0.124642 0.141132
0.454545 0.068966 0.000000 1.022691 -0.056701 0.047888 0.094706 0.120323
0.477273 0.068966 0.000000 1.077704 -0.130340 0.047888 0.019557 0.140229
0.500000 0.068966 0.000000 1.161847 -0.157080 0.047888 -0.081353 0.183264
0.522727 0.068966 0.000000 1.245989 -0.130340 0.047888 -0.182263 0.229132
0.545455 0.068966 0.000000 1.301003 -0.056701 0.047888 -0.257412 0.267898
0.568182 0.068966 0.000000 1.304927 0.045708 0.047888 -0.287348 0.294875
0.590909 0.068966 0.000000 1.248388 0.151641 0.047888 -0.263690 0.307930
0.613636 0.068966 0.000000 1.136934 0.234918 0.047888 -0.191184 0.306645
0.636364 0.068966 0.000000 0.989718 0.274827 0.047888 -0.086548 0.292085
0.659091 0.068966 0.000000 0.834856 0.261192 0.047888 0.025610 0.266778
0.681818 0.068966 0.000000 0.702589 0.196869 0.047888 0.118814 0.234878
0.704545 0.068966 0.000000 0.617921 0.097045 0.047888 0.171187 0.202524
0.727273 0.068966 0.000000 0.594543 -0.014471 0.047888 0.170797 0.177972
0.750000 0.068966 0.000000 0.631516 -0.111072 0.047888 0.118577 0.169383
0.772727 0.068966 0.000000 0.713539 -0.169857 0.047888 0.028088 0.178700
0.795455 0.068966 0.000000 0.814717 -0.177232 0.047888 -0.077799 0.199392
0.818182 0.068966 0.000000 0.904935 -0.132229 0.047888 -0.172507 0.222567
0.840909 0.068966 0.000000 0.957244 -0.046739 0.047888 -0.232253 0.241701
0.863636 0.068966 0.000000 0.954486 0.057398 0.047888 -0.241872 0.253160
0.886364 0.068966 0.000000 0.893507 0.153745 0.047888 -0.198531 0.255628
0.909091 0.068966 0.000000 0.785954 0.217740 0.047888 -0.112421 0.249685
0.931818 0.068966 0.000000 0.655438 0.232707 0.047888 -0.004269 0.237622
0.954545 0.068966 0.000000 0.531776 0.193943 0.047888 0.099732 0.223280
0.977273 0.068966 0.000000 0.443701 0.109875 0.047888 0.174330 0.211558
1.000000 0.068966 0.000000 0.411847 0.000000 0.047888 0.201390 0.207006
0.000000 0.086207 0.000000 1.867102 0.000000 0.055513 -0.341605 0.346086
0.022727 0.086207 0.000000 1.835248 0.109875 0.055513 -0.314545 0.337776
0.045455 0.086207 0.000000 1.747173 0.193943 0.055513 -0.239947 0.313481
0.068182 0.086207 0.000000 1.623510 0.232707 0.055513 -0.135946 0.275165
0.090909 0.086207 0.000000 1.492995 0.217740 0.055513 -0.027794 0.226418
0.113636 0.086207 0.000000 1.385442 0.153746 0.055513 0.058316 0.173551
0.136364 0.086207 0.000000 1.324463 0.057398 0.055513 0.101657 0.129269
0.159091 0.086207 0.000000 1.321704 -0.046739 0.055513 0.092038 0.117206
0.181818 0.086207 0.000000 1.374014 -0.132229 0.055513 0.032292 0.146999
0.204545 0.086207 0.000000 1.464231 -0.177232 0.055513 -0.062416 0.195930
0.227273 0.086207 0.000000 1.565410 -0.169857 0.055513 -0.168303 0.245477
0.250000 0.086207 0.000000 1.647432 -0.111072 0.055513 -0.258792 0.287040
0.272727 0.086207 0.000000 1.684406 -0.014471 0.055513 -0.311012 0.316258
0.295455 0.086207 0.000000 1.661028 0.097045 0.055513 -0.311401 0.330863
0.318182 0.086207 0.000000 1.576360 0.196869 0.055513 -0.259029 0.330053
0.340909 0.086207 0.000000 1.444093 0.261192 0.055513 -0.165825 0.314326
0.363636 0.086207 0.000000 1.289231 0.274827 0.055513 -0.053667 0.285467
0.386364 0.086207 0.000000 1.142015 0.234919 0.055513 0.050969 0.246711
0.409091 0.086207 0.000000 1.030560 0.151641 0.055513 0.123475 0.203280
0.431818 0.086207 0.000000 0.974022 0.045708 0.055513 0.147133 0.163765
0.454545 0.086207 0.000000 0.977946 -0.056701 0.055513 0.117197 0.141534
0.477273 0.086207 0.000000 1.032959 -0.130340 0.055513 0.042048 0.147778
0.500000 0.086207 0.000000 1.117102 -0.157080 0.055513 -0.058862 0.176693
0.522727 0.086207 0.000000 1.201245 -0.130340 0.055513 -0.159772 0.213535
0.545455 0.086207 0.000000 1.256258 -0.056701 0.055513 -0.234921 0.247961
0.568182 0.086207 0.000000 1.260183 0.045708 0.055513 -0.264857 0.274445
0.590909 0.086207 0.000000 1.203644 0.151641 0.055513 -0.241199 0.290265
0.613636 0.086207 0.000000 1.092190 0.234918 0.055513 -0.168693 0.294492
0.636364 0.086207 0.000000 0.944973 0.274827 0.055513 -0.064057 0.287602
0.659091 0.086207 0.000000 0.790112 0.261192 0.055513 0.048101 0.271324
0.681818 0.086207 0.000000 0.657844 0.196869 0.055513 0.141305 0.248609
0.704545 0.086207 0.000000 0.573177 0.097045 0.055513 0.193678 0.223630
0.727273 0.086207 0.000000 0.549798 -0.014471 0.055513 0.193288 0.201621
0.750000 0.086207 0.000000 0.586772 -0.111072 0.055513 0.141068 0.187933
0.772727 0.086207 0.000000 0.668794 -0.169857 0.055513 0.050579 0.185719
0.795455 0.086207 0.000000 0.769973 -0.177232 0.055513 -0.055308 0.193783
0.818182 0.086207 0.000000 0.860190 -0.132229 0.055513 -0.150016 0.207535
0.840909 0.086207 0.000000 0.912500 -0.046739 0.055513 -0.209762 0.221960
0.863636 0.086207 0.000000 0.909741 0.057398 0.055513 -0.219381 0.233462
0.886364 0.086207 0.000000 0.848763 0.153745 0.055513 -0.176040 0.240228
0.909091 0.086207 0.000000 0.741209 0.217740 0.055513 -0.089930 0.242033
0.931818 0.086207 0.000000 0.610694 0.232707 0.055513 0.018222 0.239930
0.954545 0.086207 0.000000 0.487031 0.193943 0.055513 0.122223 0.235869
0.977273 0.086207 0.000000 0.398956 0.109875 0.055513 0.196821 0.232148
1.000000 0.086207 0.000000 0.367102 0.000000 0.055513 0.223881 0.230661
0.000000 0.103448 0.000000 1.816882 0.000000 0.060542 -0.316362 0.322103
0.022727 0.103448 0.000000 1.785028 0.109875 0.060542 -0.289302 0.315331
0.045455 0.103448 0.000000 1.696953 0.193943 0.060542 -0.214704 0.295596
0.068182 0.103448 0.000000 1.573290 0.232707 0.060542 -0.110703 0.264713
0.090909 0.103448 0.000000 1.442775 0.217740 0.060542 -0.002551 0.226015
0.113636 0.103448 0.000000 1.335222 0.153746 0.060542 0.083559 0.185162
0.136364 0.103448 0.000000 1.274243 0.057398 0.060542 0.126901 0.151867
0.159091 0.103448 0.000000 1.271484 -0.046739 0.060542 0.117281 0.140017
0.181818 0.103448 0.000000 1.323794 -0.132229 0.060542 0.057535 0.156397
0.204545 0.103448 0.000000 1.414011 -0.177232 0.060542 -0.037173 0.190941
0.227273 0.103448 0.000000 1.515190 -0.169857 0.060542 -0.143060 0.230180
0.250000 0.103448 0.000000 1.597212 -0.111072 0.060542 -0.233548 0.265607
0.272727 0.103448 0.000000 1.634186 -0.014471 0.060542 -0.285768 0.292469
0.295455 0.103448 0.000000 1.610808 0.097045 0.060542 -0.286158 0.308171
0.318182 0.103448 0.000000 1.526140 0.196869 0.060542 -0.233786 0.311574
0.340909 0.103448 0.000000 1.393873 0.261192 0.060542 -0.140582 0.302737
0.363636 0.103448 0.000000 1.239011 0.274827 0.060542 -0.028423 0.282848
0.386364 0.103448 0.000000 1.091795 0.234919 0.060542 0.076212 0.254284
0.409091 0.103448 0.000000 0.980340 0.151641 0.060542 0.148718 0.220856
0.431818 0.103448 0.000000 0.923802 0.045708 0.060542 0.172377 0.188330
0.454545 0.103448 0.000000 0.927726 -0.056701 0.060542 0.142441 0.164832
0.477273 0.103448 0.000000 0.982739 -0.130340 0.060542 0.067291 0.158688
0.500000 0.103448 0.000000 1.066882 -0.157080 0.060542 -0.033619 0.171667
0.522727 0.103448 0.000000 1.151025 -0.130340 0.060542 -0.134529 0.196855
0.545455 0.103448 0.000000 1.206038 -0.056701 0.060542 -0.209678 0.225489
0.568182 0.103448 0.000000 1.209962 0.045708 0.060542 -0.239614 0.251335
0.590909 0.103448 0.000000 1.153424 0.151641 0.060542 -0.215955 0.270734
0.613636 0.103448 0.000000 1.041969 0.234918 0.060542 -0.143449 0.281833
0.636364 0.103448 0.000000 0.894753 0.274827 0.060542 -0.038814 0.284080
0.659091 0.103448 0.000000 0.739892 0.261192 0.060542 0.073345 0.277968
0.681818 0.103448 0.000000 0.607624 0.196869 0.060542 0.166549 0.264880
0.704545 0.103448 0.000000 0.522957 0.097045 0.060542 0.218921 0.247001
0.727273 0.103448 0.000000 0.499578 -0.014471 0.060542 0.218531 0.227223
0.750000 0.103448 0.000000 0.536552 -0.111072 0.060542 0.166311 0.208954
0.772727 0.103448 0.000000 0.618574 -0.169857 0.060542 0.075823 0.195617
0.795455 0.103448 0.000000 0.719753 -0.177232 0.060542 -0.030065 0.189685
0.818182 0.103448 0.000000 0.809970 -0.132229 0.060542 -0.124772 0.191619
0.840909 0.103448 0.000000 0.862280 -0.046739 0.060542 -0.184518 0.199742
0.863636 0.103448 0.000000 0.859521 0.057398 0.060542 -0.194138 0.211304
0.886364 0.103448 0.000000 0.798543 0.153745 0.060542 -0.150797 0.223702
0.909091 0.103448 0.000000 0.690989 0.217740 0.060542 -0.064686 0.235075
0.931818 0.103448 0.000000 0.560474 0.232707 0.060542 0.043466 0.244350
0.954545 0.103448 0.000000 0.436811 0.193943 0.060542 0.147467 0.251049
0.977273 0.103448 0.000000 0.348736 0.109875 0.060542 0.222065 0.255050
1.000000 0.103448 0.000000 0.316882 0.000000 0.060542 0.249125 0.256376
0.000000 0.120690 0.000000 1.763535 0.000000 0.062740 -0.289547 0.296266
0.022727 0.120690 0.000000 1.731681 0.109875 0.062740 -0.262487 0.291390
0.045455 0.120690 0.000000 1.643606 0.193943 0.062740 -0.187889 0.277223
0.068182 0.120690 0.000000 1.519943 0.232707 0.062740 -0.083888 0.255198
0.090909 0.120690 0.000000 1.389427 0.217740 0.062740 0.024265 0.227894
0.113636 0.120690 0.000000 1.281874 0.153746 0.062740 0.110375 0.199390
0.136364 0.120690 0.000000 1.220895 0.057398 0.062740 0.153716 0.175668
0.159091 0.120690 0.000000 1.218137 -0.046739 0.062740 0.144097 0.163965
0.181818 0.120690 0.000000 1.270446 -0.132229 0.062740 0.084351 0.168925
0.204545 0.120690 0.000000 1.360664 -0.177232 0.062740 -0.010357 0.188294
0.227273 0.120690 0.000000 1.461843 -0.169857 0.062740 -0.116245 0.215176
0.250000 0.120690 0.000000 1.543865 -0.111072 0.062740 -0.206733 0.242923
0.272727 0.120690 0.000000 1.580838 -0.014471 0.062740 -0.258953 0.266838
0.295455 0.120690 0.000000 1.557460 0.097045 0.062740 -0.259343 0.283924
0.318182 0.120690 0.000000 1.472793 0.196869 0.062740 -0.206971 0.292456
0.340909 0.120690 0.000000 1.340525 0.261192 0.062740 -0.113767 0.291720
0.363636 0.120690 0.000000 1.185664 0.274827 0.062740 -0.001608 0.281902
0.386364 0.120690 0.000000 1.038447 0.234919 0.062740 0.103027 0.264079
0.409091 0.120690 0.000000 0.926993 0.151641 0.062740 0.175533 0.240298
0.431818 0.120690 0.000000 0.870454 0.045708 0.062740 0.199192 0.213782
0.454545 0.120690 0.000000 0.874379 -0.056701 0.062740 0.169256 0.189206
0.477273 0.120690 0.000000 0.929392 -0.130340 0.062740 0.094107 0.172571
0.500000 0.120690 0.000000 1.013535 -0.157080 0.062740 -0.006803 0.169283
0.522727 0.120690 0.000000 1.097677 -0.130340 0.062740 -0.107713 0.180352
0.545455 0.120690 0.000000 1.152691 -0.056701 0.062740 -0.182863 0.201470
0.568182 0.120690 0.000000 1.156615 0.045708 0.062740 -0.212799 0.226514
0.590909 0.120690 0.000000 1.100076 0.151641 0.062740 -0.189140 0.250410
0.613636 0.120690 0.000000 0.988622 0.234918 0.062740 -0.116634 0.269678
0.636364 0.120690 0.000000 0.841406 0.274827 0.062740 -0.011999 0.282153
0.659091 0.120690 0.000000 0.686544 0.261192 0.062740 0.100160 0.286687
0.681818 0.120690 0.000000 0.554277 0.196869 0.062740 0.193364 0.282990
0.704545 0.120690 0.000000 0.469609 0.097045 0.062740 0.245736 0.271552
0.727273 0.120690 0.000000 0.446231 -0.014471 0.062740 0.245346 0.253654
0.750000 0.120690 0.000000 0.483205 -0.111072 0.062740 0.193126 0.231454
0.772727 0.120690 0.000000 0.565227 -0.169857 0.062740 0.102638 0.208140
0.795455 0.120690 0.000000 0.666405 -0.177232 0.062740 -0.003249 0.188037
0.818182 0.120690 0.000000 0.756623 -0.132229 0.062740 -0.097957 0.176114
0.840909 0.120690 0.000000 0.808933 -0.046739 0.062740 -0.157703 0.176043
0.863636 0.120690 0.000000 0.806174 0.057398 0.062740 -0.167323 0.187690
0.886364 0.120690 0.000000 0.745195 0.153745 0.062740 -0.123981 0.207232
0.909091 0.120690 0.000000 0.637642 0.217740 0.062740 -0.037871 0.229742
0.931818 0.120690 0.000000 0.507127 0.232707 0.062740 0.070281 0.251054
0.954545 0.120690 0.000000 0.383464 0.193943 0.062740 0.174282 0.268187
0.977273 0.120690 0.000000 0.295389 0.109875 0.062740 0.248880 0.279195
1.000000 0.120690 0.000000 0.263535 0.000000 0.062740 0.275940 0.282983
0.000000 0.137931 0.000000 1.709555 0.000000 0.062004 -0.262413 0.269639
0.022727 0.137931 0.000000 1.677700 0.109875 0.062004 -0.235353 0.267036
0.045455 0.137931 0.000000 1.589625 0.193943 0.062004 -0.160755 0.259424
0.068182 0.137931 0.000000 1.465963 0.232707 0.062004 -0.056754 0.247423
0.090909 0.137931 0.000000 1.335447 0.217740 0.062004 0.051398 0.232157
0.113636 0.137931 0.000000 1.227894 0.153746 0.062004 0.137508 0.215385
0.136364 0.137931 0.000000 1.166915 0.057398 0.062004 0.180849 0.199613
0.159091 0.137931 0.000000 1.164157 -0.046739 0.062004 0.171230 0.188013
0.181818 0.137931 0.000000 1.216466 -0.132229 0.062004 0.111484 0.183732
0.204545 0.137931 0.000000 1.306684 -0.177232 0.062004 0.016776 0.188513
0.227273 0.137931 0.000000 1.407862 -0.169857 0.062004 -0.089111 0.201586
0.250000 0.137931 0.000000 1.489885 -0.111072 0.062004 -0.179600 0.220085
0.272727 0.137931 0.000000 1.526858 -0.014471 0.062004 -0.231820 0.240404
0.295455 0.137931 0.000000 1.503480 0.097045 0.062004 -0.232209 0.259198
0.318182 0.137931 0.000000 1.418812 0.196869 0.062004 -0.179837 0.273758
0.340909 0.137931 0.000000 1.286545 0.261192 0.062004 -0.086633 0.282084
0.363636 0.137931 0.000000 1.131683 0.274827 0.062004 0.025525 0.282889
0.386364 0.137931 0.000000 0.984467 0.234919 0.062004 0.130161 0.275632
0.409091 0.137931 0.000000 0.873013 0.151641 0.062004 0.202667 0.260602
0.431818 0.137931 0.000000 0.816474 0.045708 0.062004 0.226325 0.239075
0.454545 0.137931 0.000000 0.820399 -0.056701 0.062004 0.196390 0.213608
0.477273 0.137931 0.000000 0.875412 -0.130340 0.062004 0.121240 0.188500
0.500000 0.137931 0.000000 0.959554 -0.157080 0.062004 0.020330 0.170094
0.522727 0.137931 0.000000 1.043697 -0.130340 0.062004 -0.080580 0.165306
0.545455 0.137931 0.000000 1.098710 -0.056701 0.062004 -0.155729 0.176949
0.568182 0.137931 0.000000 1.102635 0.045708 0.062004 -0.185665 0.201011
0.590909 0.137931 0.000000 1.046096 0.151641 0.062004 -0.162007 0.230403
0.613636 0.137931 0.000000 0.934642 0.234918 0.062004 -0.089500 0.258924
0.636364 0.137931 0.000000 0.787426 0.274827 0.062004 0.015135 0.282141
0.659091 0.137931 0.000000 0.632564 0.261192 0.062004 0.127293 0.297102
0.681818 0.137931 0.000000 0.500297 0.196869 0.062004 0.220498 0.302028
0.704545 0.137931 0.000000 0.415629 0.097045 0.062004 0.272870 0.296176
0.727273 0.137931 0.000000 0.392251 -0.014471 0.062004 0.272480 0.279820
0.750000 0.137931 0.000000 0.429224 -0.111072 0.062004 0.220260 0.254354
0.772727 0.137931 0.000000 0.511247 -0.169857 0.062004 0.129772 0.222568
0.795455 0.137931 0.000000 0.612425 -0.177232 0.062004 0.023884 0.189278
0.818182 0.137931 0.000000 0.702643 -0.132229 0.062004 -0.070824 0.162311
0.840909 0.137931 0.000000 0.754952 -0.046739 0.062004 -0.130570 0.151913
0.863636 0.137931 0.000000 0.752194 0.057398 0.062004 -0.140189 0.163683
0.886364 0.137931 0.000000 0.691215 0.153745 0.062004 -0.096848 0.191994
0.909091 0.137931 0.000000 0.583662 0.217740 0.062004 -0.010738 0.226651
0.931818 0.137931 0.000000 0.453146 0.232707 0.062004 0.097414 0.259782
0.954545 0.137931 0.000000 0.329484 0.193943 0.062004 0.201415 0.286403
0.977273 0.137931 0.000000 0.241409 0.109875 0.062004 0.276014 0.303481
1.000000 0.137931 0.000000 0.209555 0.000000 0.062004 0.303073 0.309351
0.000000 0.155172 0.000000 1.657465 0.000000 0.058369 -0.236230 0.243335
0.022727 0.155172 0.000000 1.625611 0.109875 0.058369 -0.209171 0.243376
0.045455 0.155172 0.000000 1.537536 0.193943 0.058369 -0.134573 0.243168
0.068182 0.155172 0.000000 1.413874 0.232707 0.058369 -0.030571 0.241856